
*************** JDFTx 1.7.0 (git hash c3f005b2) ***************

Start date and time: Fri Jan  3 23:21:37 2025
Executable /global/cfs/cdirs/m4025/Software/Perlmutter/JDFTx/build-gpu/jdftx_gpu with command-line: -i init.in -o jdftx.out
Running on hosts (process indices):  nid200273 (0)
Divided in process groups (process indices):  0 (0)
gpuInit: Found compatible cuda device 0 'NVIDIA A100-SXM4-80GB'
gpuInit: Selected device 0
Resource initialization completed at t[s]:      0.56
Run totals: 1 processes, 64 threads, 1 GPUs


Input parsed successfully to the following command list (including defaults):

band-projection-params yes no
basis kpoint-dependent
converge-empty-states yes
coords-type Cartesian
core-overlap-check none
coulomb-interaction Periodic
davidson-band-ratio 1.1
dump End State Forces ElecDensity KEdensity Dtot VfluidTot BandEigs BandProjections EigStats Ecomponents BoundCharge DOS
dump-name jdftx.$VAR
elec-cutoff 20 100
elec-eigen-algo Davidson
elec-ex-corr gga-PBE
elec-n-bands 40
elec-smearing Fermi 0.001
electronic-minimize  \
	dirUpdateScheme      FletcherReeves \
	linminMethod         DirUpdateRecommended \
	nIterations          100 \
	history              15 \
	knormThreshold       0 \
	maxThreshold         no \
	energyDiffThreshold  1e-07 \
	nEnergyDiff          2 \
	convergeAll          no \
	alphaTstart          1 \
	alphaTmin            1e-10 \
	updateTestStepSize   yes \
	alphaTreduceFactor   0.1 \
	alphaTincreaseFactor 3 \
	nAlphaAdjustMax      3 \
	wolfeEnergy          0.0001 \
	wolfeGradient        0.9 \
	abortOnFailedStep    no \
	fdTest               no
exchange-regularization WignerSeitzTruncated
fluid None
fluid-ex-corr lda-TF lda-PZ
fluid-gummel-loop 10 1.000000e-05
fluid-minimize  \
	dirUpdateScheme      PolakRibiere \
	linminMethod         DirUpdateRecommended \
	nIterations          100 \
	history              15 \
	knormThreshold       0 \
	maxThreshold         no \
	energyDiffThreshold  0 \
	nEnergyDiff          2 \
	convergeAll          no \
	alphaTstart          1 \
	alphaTmin            1e-10 \
	updateTestStepSize   yes \
	alphaTreduceFactor   0.1 \
	alphaTincreaseFactor 3 \
	nAlphaAdjustMax      3 \
	wolfeEnergy          0.0001 \
	wolfeGradient        0.9 \
	abortOnFailedStep    no \
	fdTest               no
fluid-solvent H2O 55.338 ScalarEOS \
	epsBulk 78.4 \
	pMol 0.92466 \
	epsInf 1.77 \
	Pvap 1.06736e-10 \
	sigmaBulk 4.62e-05 \
	Rvdw 2.61727 \
	Res 1.42 \
	tauNuc 343133 \
	poleEl 15 7 1
forces-output-coords Positions
initial-magnetic-moments  \
	Ir 5 5 5 5
ion Ir   0.000000000000000   0.000000000000000   0.000000000000000 1
ion Ir   0.000000000000000   3.641435473563000   3.641435473563000 1
ion Ir   3.641435473563000   0.000000000000000   3.641435473563000 1
ion Ir   3.641435473563000   3.641435473563000   0.000000000000000 1
ion-species GBRV_v1.5/$ID_pbe_v1.uspp
ion-width 0
ionic-minimize  \
	dirUpdateScheme      L-BFGS \
	linminMethod         DirUpdateRecommended \
	nIterations          0 \
	history              15 \
	knormThreshold       0.0001 \
	maxThreshold         no \
	energyDiffThreshold  1e-06 \
	nEnergyDiff          2 \
	convergeAll          no \
	alphaTstart          1 \
	alphaTmin            1e-10 \
	updateTestStepSize   yes \
	alphaTreduceFactor   0.1 \
	alphaTincreaseFactor 3 \
	nAlphaAdjustMax      3 \
	wolfeEnergy          0.0001 \
	wolfeGradient        0.9 \
	abortOnFailedStep    no \
	fdTest               no
kpoint   0.000000000000   0.000000000000   0.000000000000  1.00000000000000
kpoint-folding 6 6 6 
latt-move-scale 0 0 0
latt-scale 1 1 1 
lattice  \
	   7.282870947127000    0.000000000000000    0.000000000000000  \
	   0.000000000000000    7.282870947127000    0.000000000000000  \
	   0.000000000000000    0.000000000000000    7.282870947127000 
lattice-minimize  \
	dirUpdateScheme      L-BFGS \
	linminMethod         DirUpdateRecommended \
	nIterations          0 \
	history              15 \
	knormThreshold       0 \
	maxThreshold         no \
	energyDiffThreshold  1e-06 \
	nEnergyDiff          2 \
	convergeAll          no \
	alphaTstart          1 \
	alphaTmin            1e-10 \
	updateTestStepSize   yes \
	alphaTreduceFactor   0.1 \
	alphaTincreaseFactor 3 \
	nAlphaAdjustMax      3 \
	wolfeEnergy          0.0001 \
	wolfeGradient        0.9 \
	abortOnFailedStep    no \
	fdTest               no
lcao-params -1 1e-06 0.001
pcm-variant GLSSA13
perturb-minimize  \
	nIterations            0 \
	algorithm              MINRES \
	residualTol            0.0001 \
	residualDiffThreshold  0.0001 \
	CGBypass               no \
	recomputeResidual      no
spintype z-spin
subspace-rotation-factor 1 yes
symmetries none
symmetry-threshold 0.0001
van-der-waals D3


Applied RMS atom displacement 0 bohrs to make symmetries exact.

---------- Initializing the Grid ----------
R = 
[      7.28287            0            0  ]
[            0      7.28287            0  ]
[            0            0      7.28287  ]
unit cell volume = 386.285
G =
[   0.862735          0          0  ]
[          0   0.862735          0  ]
[          0          0   0.862735  ]
Minimum fftbox size, Smin = [  36  36  36  ]
Chosen fftbox size, S = [  36  36  36  ]

---------- Initializing tighter grid for wavefunction operations ----------
R = 
[      7.28287            0            0  ]
[            0      7.28287            0  ]
[            0            0      7.28287  ]
unit cell volume = 386.285
G =
[   0.862735          0          0  ]
[          0   0.862735          0  ]
[          0          0   0.862735  ]
Minimum fftbox size, Smin = [  32  32  32  ]
Chosen fftbox size, S = [  32  32  32  ]

---------- Exchange Correlation functional ----------
Initalized PBE GGA exchange.
Initalized PBE GGA correlation.

---------- Setting up pseudopotentials ----------
Width of ionic core gaussian charges (only for fluid interactions / plotting) set to 0

Reading pseudopotential file '/global/cfs/cdirs/m4025/Software/Perlmutter/JDFTx/build-gpu/pseudopotentials/GBRV_v1.5/ir_pbe_v1.uspp':
  Title: Ir.  Created by USPP 7.3.6 on 3-2-2014
  Reference state energy: -90.436894.  15 valence electrons in orbitals:
    |510>  occupation: 6  eigenvalue: -2.019590
    |520>  occupation: 8.5  eigenvalue: -0.306422
    |600>  occupation: 0  eigenvalue: -0.312524
    |610>  occupation: 0  eigenvalue: -0.124096
  lMax: 2  lLocal: 3  QijEcut: 5
  7 projectors sampled on a log grid with 745 points:
    l: 0  eig: -0.312523  rCut: 2.55
    l: 0  eig: 0.250000  rCut: 2.55
    l: 1  eig: -2.019590  rCut: 1.62
    l: 1  eig: -0.124096  rCut: 1.62
    l: 1  eig: 1.000000  rCut: 1.62
    l: 2  eig: -0.500000  rCut: 1.65
    l: 2  eig: -0.306421  rCut: 1.65
  Partial core density with radius 1.15
  Transforming core density to a uniform radial grid of dG=0.02 with 1350 points.
  Transforming local potential to a uniform radial grid of dG=0.02 with 1350 points.
  Transforming nonlocal projectors to a uniform radial grid of dG=0.02 with 432 points.
  Transforming density augmentations to a uniform radial grid of dG=0.02 with 1350 points.
  Transforming atomic orbitals to a uniform radial grid of dG=0.02 with 432 points.
  Core radius for overlap checks: 2.55 bohrs.

Initialized 1 species with 4 total atoms.

Folded 1 k-points by 6x6x6 to 216 k-points.

---------- Setting up k-points, bands, fillings ----------
No reducable k-points. 
Computing the number of bands and number of electrons
Calculating initial fillings.
nElectrons:  60.000000   nBands: 40   nStates: 432

----- Setting up reduced wavefunction bases (one per k-point) -----
average nbasis = 1650.736 , ideal nbasis = 1650.239

----- Initializing Supercell corresponding to k-point mesh -----
Lattice vector linear combinations in supercell:
[   6   0   0  ]
[   0   6   0  ]
[   0   0   6  ]
Supercell lattice vectors:
[  43.6972  0  0  ]
[  0  43.6972  0  ]
[  0  0  43.6972  ]

Initializing DFT-D3 calculator:
	Parameters set for gga-PBE functional
	s6:  1.000  s_r6:  1.217
	s8:  0.722  s_r8:  1.000
	Per-atom parameters loaded for:
	Ir:  sqrtQ[a0]:  6.055  Rcov[a0]:  2.098  CN: [ 0.00 1.86 2.94 ]

---------- Setting up ewald sum ----------
Optimum gaussian width for ewald sums = 2.306053 bohr.
Real space sum over 1331 unit cells with max indices [  5  5  5  ]
Reciprocal space sum over 2197 terms with max indices [  6  6  6  ]

Computing DFT-D3 correction:
# coordination-number Ir 9.822 9.822 9.822 9.822
# diagonal-C6 Ir 305.53 305.53 305.53 305.53
EvdW_6 =   -0.040593
EvdW_8 =   -0.063736

---------- Allocating electronic variables ----------
Initializing wave functions:  linear combination of atomic orbitals
Ir (M=5) pseudo-atom majority spin occupations:   s ( 1 )  p ( 3 1 )  d ( 5 )
Ir (M=5) pseudo-atom minority spin occupations:   s ( 1 )  p ( 3 0 )  d ( 1 )
	FillingsUpdate:  mu: +0.950945572  nElectrons: 60.000000  magneticMoment: [ Abs: 0.16664  Tot: +0.00000 ]
LCAOMinimize: Iter:   0  F: -305.7750809272532706  |grad|_K:  6.348e-04  alpha:  1.000e+00
	FillingsUpdate:  mu: +0.906141626  nElectrons: 60.000000  magneticMoment: [ Abs: 0.06837  Tot: -0.00000 ]
LCAOMinimize: Iter:   1  F: -305.9126718256459867  |grad|_K:  1.572e-05  alpha:  6.675e-01  linmin:  8.721e-02  cgtest: -2.395e-01  t[s]:     30.75
	FillingsUpdate:  mu: +0.906179004  nElectrons: 60.000000  magneticMoment: [ Abs: 0.01103  Tot: -0.00000 ]
LCAOMinimize: Iter:   2  F: -305.9127864673102977  |grad|_K:  1.222e-05  alpha:  9.490e-01  linmin: -2.006e-04  cgtest:  7.759e-02  t[s]:     43.65
	FillingsUpdate:  mu: +0.906252151  nElectrons: 60.000000  magneticMoment: [ Abs: 0.00467  Tot: +0.00000 ]
LCAOMinimize: Iter:   3  F: -305.9128002511068871  |grad|_K:  3.045e-06  alpha:  1.782e-01  linmin:  2.213e-03  cgtest: -3.361e-02  t[s]:     56.31
LCAOMinimize: 	Predicted alpha/alphaT>3.000000, increasing alphaT to 5.346991e-01.
	FillingsUpdate:  mu: +0.906443322  nElectrons: 60.000000  magneticMoment: [ Abs: 0.00333  Tot: -0.00000 ]
LCAOMinimize: Iter:   4  F: -305.9128031930576412  |grad|_K:  6.380e-07  alpha:  6.132e-01  linmin:  4.377e-04  cgtest:  1.436e-02  t[s]:     73.32
	FillingsUpdate:  mu: +0.906448594  nElectrons: 60.000000  magneticMoment: [ Abs: 0.00324  Tot: -0.00000 ]
LCAOMinimize: Iter:   5  F: -305.9128032843351548  |grad|_K:  6.513e-07  alpha:  4.325e-01  linmin: -1.024e-07  cgtest:  1.701e-04  t[s]:     85.86
	FillingsUpdate:  mu: +0.906450107  nElectrons: 60.000000  magneticMoment: [ Abs: 0.00323  Tot: +0.00000 ]
LCAOMinimize: Iter:   6  F: -305.9128033586365518  |grad|_K:  1.042e-07  alpha:  3.377e-01  linmin: -9.085e-06  cgtest: -8.957e-04  t[s]:     98.54
LCAOMinimize: Converged (|Delta F|<1.000000e-06 for 2 iters).


---- Citations for features of the code used in this run ----

   Software package:
      R. Sundararaman, K. Letchworth-Weaver, K.A. Schwarz, D. Gunceler, Y. Ozhabes and T.A. Arias, 'JDFTx: software for joint density-functional theory', SoftwareX 6, 278 (2017)

   gga-PBE exchange-correlation functional:
      J.P. Perdew, K. Burke and M. Ernzerhof, Phys. Rev. Lett. 77, 3865 (1996)

   Pseudopotentials:
      KF Garrity, JW Bennett, KM Rabe and D Vanderbilt, Comput. Mater. Sci. 81, 446 (2014)

   DFT-D3 dispersion correction:
      S. Grimme, J. Antony, S. Ehrlich and H. Krieg, J. Chem. Phys. 132, 154104 (2010)

   Total energy minimization with Auxiliary Hamiltonian:
      C. Freysoldt, S. Boeck, and J. Neugebauer, Phys. Rev. B 79, 241103(R) (2009)

   Linear-tetrahedron sampling for density of states:
      G. Lehmann and M. Taut, Phys. status solidi (b) 54, 469 (1972)

   Smooth electrostatic potentials by atom-potential subtraction:
      R. Sundararaman and Y. Ping, J. Chem. Phys. 146, 104109 (2017)

This list may not be complete. Please suggest additional citations or
report any other bugs at https://github.com/shankar1729/jdftx/issues

Initialization completed successfully at t[s]:    101.03


Computing DFT-D3 correction:
# coordination-number Ir 9.822 9.822 9.822 9.822
# diagonal-C6 Ir 305.53 305.53 305.53 305.53
EvdW_6 =   -0.040593
EvdW_8 =   -0.063736

-------- Electronic minimization -----------
	FillingsUpdate:  mu: +0.906450107  nElectrons: 60.000000  magneticMoment: [ Abs: 0.00323  Tot: +0.00000 ]
ElecMinimize: Iter:   0  F: -305.912803358636438  |grad|_K:  6.119e-05  alpha:  1.000e+00
	FillingsUpdate:  mu: +0.912325366  nElectrons: 60.000000  magneticMoment: [ Abs: 0.00218  Tot: -0.00000 ]
	SubspaceRotationAdjust: set factor to 1
ElecMinimize: Iter:   1  F: -305.966458599655880  |grad|_K:  2.718e-05  alpha:  4.972e-01  linmin:  8.599e-05  t[s]:    128.26
	FillingsUpdate:  mu: +0.904999802  nElectrons: 60.000000  magneticMoment: [ Abs: 0.00148  Tot: +0.00000 ]
	SubspaceRotationAdjust: set factor to 1
ElecMinimize: Iter:   2  F: -305.975309177048757  |grad|_K:  1.484e-05  alpha:  4.155e-01  linmin:  2.111e-05  t[s]:    145.66
	FillingsUpdate:  mu: +0.904475289  nElectrons: 60.000000  magneticMoment: [ Abs: 0.00102  Tot: +0.00000 ]
	SubspaceRotationAdjust: set factor to 1.04
ElecMinimize: Iter:   3  F: -305.977397954957667  |grad|_K:  6.816e-06  alpha:  3.285e-01  linmin:  1.093e-05  t[s]:    162.97
	FillingsUpdate:  mu: +0.904380259  nElectrons: 60.000000  magneticMoment: [ Abs: 0.00058  Tot: +0.00000 ]
	SubspaceRotationAdjust: set factor to 1.11
ElecMinimize: Iter:   4  F: -305.978040042327677  |grad|_K:  3.589e-06  alpha:  4.791e-01  linmin:  2.698e-05  t[s]:    180.26
	FillingsUpdate:  mu: +0.904477532  nElectrons: 60.000000  magneticMoment: [ Abs: 0.00025  Tot: +0.00000 ]
	SubspaceRotationAdjust: set factor to 1.12
ElecMinimize: Iter:   5  F: -305.978245897165152  |grad|_K:  1.811e-06  alpha:  5.542e-01  linmin:  1.893e-05  t[s]:    197.58
	FillingsUpdate:  mu: +0.904456677  nElectrons: 60.000000  magneticMoment: [ Abs: 0.00011  Tot: +0.00000 ]
	SubspaceRotationAdjust: set factor to 0.998
ElecMinimize: Iter:   6  F: -305.978297391800766  |grad|_K:  1.321e-06  alpha:  5.442e-01  linmin:  1.103e-06  t[s]:    214.58
	FillingsUpdate:  mu: +0.904454652  nElectrons: 60.000000  magneticMoment: [ Abs: 0.00007  Tot: +0.00000 ]
	SubspaceRotationAdjust: set factor to 0.652
ElecMinimize: Iter:   7  F: -305.978310567614130  |grad|_K:  1.021e-06  alpha:  2.611e-01  linmin: -9.456e-06  t[s]:    232.05
	FillingsUpdate:  mu: +0.904482744  nElectrons: 60.000000  magneticMoment: [ Abs: 0.00007  Tot: -0.00000 ]
	SubspaceRotationAdjust: set factor to 0.646
ElecMinimize: Iter:   8  F: -305.978324843054395  |grad|_K:  7.073e-07  alpha:  4.740e-01  linmin:  1.769e-06  t[s]:    249.16
	FillingsUpdate:  mu: +0.904498086  nElectrons: 60.000000  magneticMoment: [ Abs: 0.00006  Tot: +0.00000 ]
	SubspaceRotationAdjust: set factor to 0.667
ElecMinimize: Iter:   9  F: -305.978331337602924  |grad|_K:  4.938e-07  alpha:  4.497e-01  linmin:  2.476e-06  t[s]:    266.49
	FillingsUpdate:  mu: +0.904453431  nElectrons: 60.000000  magneticMoment: [ Abs: 0.00005  Tot: -0.00000 ]
	SubspaceRotationAdjust: set factor to 0.536
ElecMinimize: Iter:  10  F: -305.978334262856208  |grad|_K:  3.225e-07  alpha:  4.155e-01  linmin:  5.293e-07  t[s]:    283.86
	FillingsUpdate:  mu: +0.904444343  nElectrons: 60.000000  magneticMoment: [ Abs: 0.00004  Tot: +0.00000 ]
	SubspaceRotationAdjust: set factor to 0.491
ElecMinimize: Iter:  11  F: -305.978335417481617  |grad|_K:  2.182e-07  alpha:  3.845e-01  linmin:  5.691e-08  t[s]:    301.21
	FillingsUpdate:  mu: +0.904453246  nElectrons: 60.000000  magneticMoment: [ Abs: 0.00003  Tot: +0.00000 ]
	SubspaceRotationAdjust: set factor to 0.54
ElecMinimize: Iter:  12  F: -305.978336012054058  |grad|_K:  1.306e-07  alpha:  4.326e-01  linmin:  6.428e-07  t[s]:    318.37
	FillingsUpdate:  mu: +0.904450924  nElectrons: 60.000000  magneticMoment: [ Abs: 0.00002  Tot: +0.00000 ]
	SubspaceRotationAdjust: set factor to 0.499
ElecMinimize: Iter:  13  F: -305.978336231311005  |grad|_K:  8.690e-08  alpha:  4.453e-01  linmin:  4.450e-07  t[s]:    335.73
	FillingsUpdate:  mu: +0.904457511  nElectrons: 60.000000  magneticMoment: [ Abs: 0.00001  Tot: +0.00000 ]
	SubspaceRotationAdjust: set factor to 0.498
ElecMinimize: Iter:  14  F: -305.978336330737079  |grad|_K:  6.597e-08  alpha:  4.560e-01  linmin: -1.800e-07  t[s]:    353.07
	FillingsUpdate:  mu: +0.904458845  nElectrons: 60.000000  magneticMoment: [ Abs: 0.00001  Tot: +0.00000 ]
	SubspaceRotationAdjust: set factor to 0.511
ElecMinimize: Iter:  15  F: -305.978336383143755  |grad|_K:  3.954e-08  alpha:  4.171e-01  linmin: -9.037e-08  t[s]:    370.37
ElecMinimize: Converged (|Delta F|<1.000000e-07 for 2 iters).
Setting wave functions to eigenvectors of Hamiltonian
Converging empty states (this may take a while): |deigs|: 1.150e-02

Computing DFT-D3 correction:
# coordination-number Ir 9.822 9.822 9.822 9.822
# diagonal-C6 Ir 305.53 305.53 305.53 305.53
EvdW_6 =   -0.040593
EvdW_8 =   -0.063736

# Ionic positions in cartesian coordinates:
ion Ir   0.000000000000000   0.000000000000000   0.000000000000000 1
ion Ir   0.000000000000000   3.641435473563000   3.641435473563000 1
ion Ir   3.641435473563000   0.000000000000000   3.641435473563000 1
ion Ir   3.641435473563000   3.641435473563000   0.000000000000000 1

# Forces in Cartesian coordinates:
force Ir  -0.000000529587446   0.000000049679483   0.000000024272488 1
force Ir  -0.000000276036256  -0.000000019375931  -0.000000307565547 1
force Ir   0.000000396087165  -0.000000087682521   0.000000017227395 1
force Ir   0.000000355252901  -0.000000080384348   0.000000086410383 1

# Energy components:
   Eewald =     -283.2932161409687524
       EH =       35.5759962977823037
     Eloc =     -110.8330620794021542
      Enl =        2.7404902137092577
     EvdW =       -0.1043289799377192
      Exc =     -100.8450355342818483
 Exc_core =       57.6883730478930090
       KE =       93.0926933685947944
-------------------------------------
     Etot =     -305.9780898066111945
       TS =        0.0002465765325769
-------------------------------------
        F =     -305.9783363831437555

IonicMinimize: Iter:   0  F: -305.978336383143755  |grad|_K:  2.494e-07  t[s]:    484.16
IonicMinimize: Converged (|grad|_K<1.000000e-04).

#--- Lowdin population analysis ---
# oxidation-state Ir +0.010 +0.010 +0.011 +0.010
# magnetic-moments Ir +0.000 +0.000 -0.000 -0.000


Dumping 'jdftx.fillings' ... done
Dumping 'jdftx.wfns' ... done
Dumping 'jdftx.force' ... done
Dumping 'jdftx.n_up' ... done
Dumping 'jdftx.n_dn' ... done
Dumping 'jdftx.tau_up' ... done
Dumping 'jdftx.tau_dn' ... done
Dumping 'jdftx.d_tot' ... done
Dumping 'jdftx.eigenvals' ... done
Dumping 'jdftx.bandProjections' ... done
Dumping 'jdftx.eigStats' ... 
	eMin: -0.937063 at state 129 ( [ +0.500000 +0.500000 +0.500000 ] spin 1 )
	HOMO: +0.903854 at state 89 ( [ +0.333333 +0.333333 -0.166667 ] spin 1 )
	mu  : +0.904459
	LUMO: +0.908969 at state 213 ( [ -0.166667 -0.166667 +0.500000 ] spin 1 )
	eMax: +1.296188 at state 0 ( [ +0.000000 +0.000000 +0.000000 ] spin 1 )
	HOMO-LUMO gap: +0.005115
	Optical gap  : +0.007770 at state 244 ( [ +0.000000 -0.333333 -0.333333 ] spin -1 )
Dumping 'jdftx.Ecomponents' ... done
Dumping 'jdftx.dosUp' ... done.
Dumping 'jdftx.dosDn' ... done.
End date and time: Fri Jan  3 23:29:52 2025  (Duration: 0-0:08:14.69)
Done!

PROFILER:             augmentDensityGrid     0.001142 +/-     0.000814 s,   45 calls,      0.051403 s total
PROFILER:         augmentDensityGridGrad     0.016564 +/-     0.010341 s,   25 calls,      0.414092 s total
PROFILER:        augmentDensitySpherical     0.001554 +/-     0.000043 s, 19440 calls,     30.214583 s total
PROFILER:    augmentDensitySphericalGrad     0.001642 +/-     0.000037 s, 18343 calls,     30.123045 s total
PROFILER:                 augmentOverlap     0.000543 +/-     0.000666 s, 42734 calls,     23.210264 s total
PROFILER:                     changeGrid     0.000023 +/-     0.000002 s, 56558 calls,      1.313766 s total
PROFILER:        ColumnBundle::randomize     0.001429 +/-     0.000741 s,  432 calls,      0.617222 s total
PROFILER:                     diagouterI     0.001566 +/-     0.000158 s, 20736 calls,     32.481439 s total
PROFILER:              EdensityAndVscloc     0.002096 +/-     0.000048 s,   46 calls,      0.096400 s total
PROFILER:                     EnlAndGrad     0.001126 +/-     0.000024 s, 21799 calls,     24.551883 s total
PROFILER:            ExCorrCommunication     0.000004 +/-     0.000004 s,  289 calls,      0.001017 s total
PROFILER:               ExCorrFunctional     0.000111 +/-     0.000213 s,   50 calls,      0.005539 s total
PROFILER:                    ExCorrTotal     0.001579 +/-     0.000683 s,   50 calls,      0.078943 s total
PROFILER:                   Idag_DiagV_I     0.002004 +/-     0.001130 s, 17911 calls,     35.899338 s total
PROFILER:                    inv(matrix)     0.000290 +/-     0.000256 s, 12960 calls,      3.755192 s total
PROFILER:            matrix::diagonalize     0.001002 +/-     0.000984 s, 37783 calls,     37.856014 s total
PROFILER:                    matrix::set     0.000011 +/-     0.000011 s, 217490 calls,      2.478511 s total
PROFILER:            orthoMatrix(matrix)     0.000282 +/-     0.001349 s, 20935 calls,      5.907039 s total
PROFILER:     RadialFunctionR::transform     0.006050 +/-     0.000477 s,   67 calls,      0.405332 s total
PROFILER:                    reduceKmesh     0.000020 +/-     0.000000 s,    1 calls,      0.000020 s total
PROFILER:   VanDerWaalsD3::energyAndGrad     0.347115 +/-     0.056440 s,    3 calls,      1.041346 s total
PROFILER:               WavefunctionDrag     1.292216 +/-     0.000000 s,    1 calls,      1.292216 s total
PROFILER:                            Y*M     0.000080 +/-     0.000289 s, 150432 calls,     12.087704 s total
PROFILER:                          Y1^Y2     0.000058 +/-     0.000227 s, 106602 calls,      6.146923 s total

MEMUSAGE:                   ColumnBundle     1.703293 GB
MEMUSAGE:        complexScalarFieldTilde     0.000488 GB
MEMUSAGE:                    IndexArrays     0.010626 GB
MEMUSAGE:                         matrix     0.153050 GB
MEMUSAGE:                           misc     0.000938 GB
MEMUSAGE:                    ScalarField     0.009386 GB
MEMUSAGE:               ScalarFieldTilde     0.003302 GB
MEMUSAGE:                          Total     1.846659 GB
